# LAMMPS data file written by Ovito 3.0.0-dev507
16605 atoms
3 atom types
0.0 60.0 xlo xhi
0.0 60.0 ylo yhi
0.0 60.0 zlo zhi

Atoms  # charge

1 1 1.0 23.9530638 29.5935438 57.4478796
2 2 4.0 24.0878292 31.8145608 59.4103326
3 3 -2.0 23.1685488 31.4053668 57.3021756
4 3 -2.0 23.6394972 33.5876346 59.0810508
5 1 1.0 23.5477626 33.307179 56.9037978
6 2 4.0 23.6825274 35.5281954 58.8662508
7 3 -2.0 22.7632476 35.119002 56.7580938
8 3 -2.0 23.1836916 37.3157754 58.3643526
9 1 1.0 23.1424608 37.0208142 56.3597154
10 2 4.0 23.2772262 39.2418306 58.3221684
11 3 -2.0 22.5390828 38.9144598 56.2362468
12 3 -2.0 22.6332558 41.0369376 57.957672
13 1 1.0 22.7371596 40.7344488 55.8156336
14 3 -2.0 28.7937858 27.6669648 53.7887406
15 3 -2.0 27.1761336 27.8769072 56.4267366
16 3 -2.0 38.0938788 26.9898996 41.6016906
17 3 -2.0 36.6600834 27.132408 44.2802988
18 2 4.0 26.7447498 27.5751912 54.6887214
19 3 -2.0 28.3884846 31.3806 53.2446588
20 3 -2.0 26.7708324 31.5905424 55.8826542
21 1 1.0 28.8976896 27.3644766 51.6467022
22 2 4.0 33.9770802 27.3564258 47.8079772
23 3 -2.0 31.8109572 27.1682862 48.1374342
24 2 4.0 31.2840738 29.0597592 48.3434616
25 3 -2.0 33.3331098 29.1515328 47.4434808
26 3 -2.0 31.7154582 29.3614752 50.0814768
27 1 1.0 33.630816 28.8637668 45.254283
28 2 4.0 29.032455 29.585493 53.6091552
29 3 -2.0 26.8663314 29.397354 53.9386116
30 3 -2.0 28.3843272 29.4560454 51.5916528
31 3 -2.0 37.8724344 30.6361002 41.098221
32 3 -2.0 36.2547822 30.8460426 43.736217
33 2 4.0 38.5164048 28.8409938 41.4627174
34 2 4.0 26.3394486 31.2888264 54.1446396
35 3 -2.0 27.9831828 35.0942352 52.7005764
36 3 -2.0 26.3655312 35.3041776 55.3385724
37 1 1.0 28.4923884 31.0781112 51.1026198
38 2 4.0 33.571779 31.070061 47.2638954
39 3 -2.0 31.6339992 30.9043956 47.921001
40 2 4.0 30.8787726 32.7733944 47.7993798
41 3 -2.0 33.0874596 32.9267892 47.0029092
42 3 -2.0 31.3101564 33.0751104 49.5373944
43 2 4.0 28.6271532 33.2991282 53.0650728
44 3 -2.0 26.4610302 33.1109886 53.3945298
45 3 -2.0 27.7078728 32.8899348 50.9569164
46 3 -2.0 37.4671326 34.3497354 40.5541392
47 3 -2.0 35.849481 34.5596778 43.1921346
48 2 4.0 38.111103 32.5546284 40.9186356
49 2 4.0 25.9341468 35.0024616 53.6005578
50 3 -2.0 27.5778816 38.8078704 52.1564946
51 3 -2.0 25.9602294 39.0178128 54.79449
52 1 1.0 28.0870866 34.7917464 50.558538
53 2 4.0 33.1664772 34.7836962 46.719813
54 3 -2.0 31.0003542 34.5955566 47.04927
55 2 4.0 30.4734714 36.487029 47.255298
56 3 -2.0 32.5225068 36.5788026 46.3553166
57 3 -2.0 30.9048552 36.7887456 48.9933126
58 2 4.0 28.221852 37.0127634 52.520991
59 3 -2.0 26.0557284 36.8246238 52.8504474
60 3 -2.0 27.2540268 36.6974892 50.5826064
61 3 -2.0 37.2134952 38.0660538 40.1404062
62 3 -2.0 35.4441792 38.273313 42.6480528
63 2 4.0 37.7058018 36.2682636 40.3745538
64 2 4.0 25.5288456 38.7160968 53.0564754
65 3 -2.0 27.1725798 42.5215056 51.6124122
66 3 -2.0 25.5549282 42.731448 54.2504082
67 1 1.0 27.8605128 38.5692738 49.9514148
68 2 4.0 32.761176 38.4973308 46.1757312
69 3 -2.0 30.5950524 38.3091918 46.5051882
70 2 4.0 30.2284962 40.0986426 47.0631912
71 3 -2.0 32.1172056 40.2924378 45.8112348
72 2 4.0 27.8165502 40.7263986 51.9769092
73 3 -2.0 25.809093 40.5135066 52.425582
74 3 -2.0 36.6565296 41.7770058 39.465975
75 3 -2.0 35.038878 41.9869482 42.103971
76 2 4.0 37.3519968 40.0259568 40.0186392
77 2 4.0 22.871925 42.9554658 57.7780866
78 3 -2.0 21.9526446 42.5462724 55.6699296
79 3 -2.0 22.2279546 44.7505728 57.4135902
80 1 1.0 22.3318578 44.448084 55.2715512
81 2 4.0 22.4666232 46.669101 57.2340048
82 3 -2.0 20.3005002 46.4809614 57.5634612
83 3 -2.0 21.5473428 46.259907 55.1258478
84 2 4.0 19.9548582 48.6210408 57.5138598
85 3 -2.0 21.8226528 48.464208 56.8695078
86 1 1.0 22.020027 48.0285174 54.843747
87 2 4.0 22.061322 50.3827362 56.6899224
88 3 -2.0 19.8951984 50.1945966 57.0193794
89 3 -2.0 21.118977 50.1313002 54.7025154
90 2 4.0 19.3998606 52.1287272 57.0325722
91 3 -2.0 21.4173516 52.1778426 56.325426
92 3 -2.0 20.0869962 52.6593 59.0245812
93 1 1.0 21.5212554 51.8753544 54.1833876
94 2 4.0 21.6560202 54.0963708 56.1458406
95 3 -2.0 19.4898972 53.9082318 56.475297
96 3 -2.0 21.0674718 53.4511434 54.0182058
97 3 -2.0 21.0120498 55.8914778 55.7813442
98 3 -2.0 19.3943982 56.1014202 58.4193396
99 1 1.0 21.1634346 55.8795348 53.9100984
100 2 4.0 21.250719 57.810006 55.6017582
101 3 -2.0 19.0845954 57.6218664 55.9312152
102 3 -2.0 20.4546924 57.5533716 53.5327716
103 3 -2.0 20.6067486 59.605113 55.2372618
104 1 1.0 20.7106524 59.3026242 53.0952234
105 2 4.0 25.1235438 42.429732 52.5123936
106 3 -2.0 26.7672786 46.2351402 51.0683304
107 3 -2.0 25.1496264 46.4450826 53.7063258
108 1 1.0 27.2764836 42.2190168 49.4703738
109 2 4.0 32.3558748 42.210966 45.6316494
110 3 -2.0 29.9682756 42.0048774 46.293711
111 2 4.0 29.6628684 43.9142994 46.1671338
112 3 -2.0 31.7119044 44.006073 45.267153
113 3 -2.0 30.0942522 44.2160154 47.9051484
114 2 4.0 27.411249 44.4400338 51.4328268
115 3 -2.0 25.2451254 44.2518942 51.7622838
116 3 -2.0 36.2512284 45.490641 38.9218932
117 3 -2.0 34.6335762 45.7005834 41.5598886
118 2 4.0 36.8951988 43.695534 39.2863896
119 2 4.0 24.7182426 46.1433666 51.9683112
120 3 -2.0 26.3619768 49.9487754 50.5242486
121 3 -2.0 24.7443252 50.1587178 53.162244
122 1 1.0 26.9893782 46.2118578 49.1872014
123 2 4.0 31.950573 45.9246012 45.087567
124 3 -2.0 31.47897 47.7177582 44.8244892
125 3 -2.0 29.688951 47.9296506 47.3610666
126 2 4.0 27.0059472 48.1536684 50.888745
127 3 -2.0 24.7682694 47.9753028 51.4047072
128 3 -2.0 35.8459266 49.2042756 38.3778108
129 3 -2.0 34.228275 49.414218 41.0158068
130 2 4.0 36.489897 47.4091692 38.7423072
131 2 4.0 24.5510016 49.7234772 51.7166304
132 3 -2.0 25.9566756 53.6624106 49.9801662
133 3 -2.0 24.3390234 53.872353 52.6181622
134 1 1.0 26.4658806 49.6462866 48.3822096
135 2 4.0 31.5452718 49.6382364 44.5434852
136 3 -2.0 30.9013014 51.4333434 44.1789888
137 3 -2.0 29.2836492 51.6432858 46.8169842
138 2 4.0 26.600646 51.8673036 50.3446626
139 3 -2.0 24.4345224 51.679164 50.6741196
140 3 -2.0 35.5851858 52.7797008 37.8342006
141 3 -2.0 33.8229738 53.1278532 40.4717244
142 2 4.0 36.0845958 51.1228038 38.1982254
143 2 4.0 23.9076396 53.570637 50.880147
144 3 -2.0 25.739289 57.369381 49.5042276
145 3 -2.0 23.9337222 57.5859882 52.0740798
146 2 4.0 31.13997 53.3518716 43.9994028
147 3 -2.0 30.491457 55.1632668 43.8341904
148 3 -2.0 28.878348 55.3569204 46.2729024
149 2 4.0 26.1953448 55.5809388 49.8005808
150 3 -2.0 24.3200418 55.2307422 50.3517594
151 3 -2.0 35.0353242 56.631546 37.2896466
152 3 -2.0 33.417672 56.8414884 39.9276426
153 2 4.0 35.7089502 54.8448834 37.8517518
154 2 4.0 23.5023384 57.2842722 50.3360652
155 3 -2.0 25.1460726 1.089681 48.892002
156 3 -2.0 23.528421 1.2996234 51.529998
157 2 4.0 30.7346688 57.0655062 43.455321
158 3 -2.0 30.0906984 58.8606132 43.0908246
159 3 -2.0 28.4730462 59.0705556 45.72882
160 2 4.0 25.790043 59.294574 49.2564984
161 3 -2.0 23.62392 59.1064344 49.5859554
162 3 -2.0 33.0763374 0.7185174 39.479532
163 3 -2.0 37.956996 58.3260558 33.5823828
164 2 4.0 35.2739928 58.5500742 37.1100612
165 2 4.0 20.8454172 1.5236412 55.0576764
166 3 -2.0 20.2014468 3.3187482 54.69318
167 1 1.0 20.3053506 3.0162594 52.551141
168 2 4.0 20.440116 5.2372764 54.513594
169 3 -2.0 19.7961456 7.0323834 54.1490976
170 1 1.0 20.0373654 6.7119294 52.3823208
171 2 4.0 20.0348148 8.9509116 53.9695122
172 3 -2.0 19.3908444 10.746018 53.6050158
173 2 4.0 19.629513 12.6645462 53.4254298
174 2 4.0 19.2242118 16.3781814 52.881348
175 2 4.0 23.0970366 0.9979068 49.7919828
176 3 -2.0 24.7407714 4.8033156 48.3479202
177 3 -2.0 23.1231192 5.013258 50.9859156
178 2 4.0 30.329367 0.7791414 42.9112386
179 3 -2.0 29.6853966 2.5742484 42.5467422
180 3 -2.0 28.067745 2.7841908 45.1847382
181 2 4.0 25.3847418 3.0082086 48.7124166
182 3 -2.0 23.2186182 2.8200696 49.041873
183 3 -2.0 32.607069 4.2687582 38.8394784
184 2 4.0 34.8686916 2.2637094 36.5659788
185 2 4.0 22.8992766 4.4437968 49.460595
186 3 -2.0 24.3354696 8.5169508 47.8038378
187 3 -2.0 22.717818 8.7268932 50.4418338
188 2 4.0 30.0121266 4.4700294 42.54528
189 3 -2.0 29.4565326 6.2181432 41.9393652
190 3 -2.0 27.6624438 6.497826 44.6406558
191 2 4.0 24.97944 6.7218438 48.1683342
192 3 -2.0 32.3096112 7.8268536 38.3600268
193 2 4.0 34.4633898 5.977344 36.021897
194 3 -2.0 23.9301684 12.230586 47.259756
195 3 -2.0 22.3125162 12.4405284 49.8977514
196 2 4.0 29.5187646 8.2064118 41.8230744
197 3 -2.0 28.8747942 10.0015188 41.458578
198 3 -2.0 27.3801066 10.3455342 44.179665
199 2 4.0 24.5741388 10.435479 47.6242524
200 3 -2.0 31.9268214 11.6758956 37.9016544
201 2 4.0 34.0580886 9.6909792 35.4778152
202 3 -2.0 23.5248666 15.9442212 46.7156736
203 3 -2.0 21.907215 16.1541636 49.3536696
204 2 4.0 29.1134628 11.920047 41.2789926
205 3 -2.0 28.5052068 13.4480976 41.2101402
206 3 -2.0 26.8518408 13.9250958 43.5524916
207 2 4.0 24.168837 14.1491142 47.08017
208 3 -2.0 31.3911648 15.4096638 37.2072318
209 2 4.0 33.6527868 13.4046144 34.9337328
210 2 4.0 28.7081616 15.6336816 40.7349108
211 3 -2.0 28.0641912 17.4287886 40.3704138
212 3 -2.0 26.446539 17.638731 43.0084098
213 2 4.0 23.7635358 17.8627494 46.5360882
214 2 4.0 38.8988454 26.9360544 20.562531
215 3 -2.0 37.133646 26.781735 20.8241676
216 3 -2.0 41.0707362 27.076023 19.8999864
217 3 -2.0 41.8257006 27.3339378 8.0012742
218 3 -2.0 40.2080484 27.5438802 10.6392702
219 3 -2.0 49.508142 26.866815 58.4522202
220 1 1.0 45.8330808 27.8490582 8.5320258
221 2 4.0 40.7536902 27.857109 12.3707508
222 2 4.0 43.4381694 28.4206224 14.2172712
223 3 -2.0 42.9198132 28.0452486 12.0412938
224 3 -2.0 48.1390068 29.0242416 14.8355004
225 3 -2.0 52.8997764 26.862609 8.9937096
226 3 -2.0 51.465981 27.0051168 11.6723184
227 3 -2.0 46.6599306 27.145887 15.6942024
228 3 -2.0 47.5993608 27.0280842 12.8755002
229 1 1.0 55.3170306 27.104559 56.3855886
230 2 4.0 50.0598054 27.2979726 -0.0823056
231 2 4.0 52.9221192 27.6761226 2.070834
232 3 -2.0 52.403763 27.3007488 59.8948566
233 3 -2.0 57.6229572 28.2797424 2.6890626
234 3 -2.0 56.005305 28.4896848 5.3270586
235 3 -2.0 30.567768 27.8727012 6.968226
236 1 1.0 30.6716718 27.5702124 4.8261876
237 2 4.0 30.8064372 29.7912294 6.7886406
238 2 4.0 28.1219574 29.2277166 4.9421202
239 3 -2.0 29.8871568 29.382036 4.6804836
240 3 -2.0 27.2962278 28.8984402 3.3097524
241 3 -2.0 27.6335202 31.1226852 5.1433704
242 3 -2.0 30.1624668 31.5863364 6.4241442
243 1 1.0 30.2663706 31.2838476 4.2821058
244 2 4.0 30.4011354 33.5048646 6.2445588
245 2 4.0 27.7166562 32.9413512 4.3980378
246 3 -2.0 28.2350124 33.316725 6.5740152
247 3 -2.0 29.4818556 33.0956706 4.1364018
248 3 -2.0 26.890926 32.6120754 2.76567
249 2 4.0 27.7081296 35.208198 6.7800432
250 3 -2.0 27.2282184 34.8363204 4.5992886
251 3 -2.0 29.757165 35.2999716 5.8800624
252 1 1.0 29.8610688 34.9974828 3.7380234
253 2 4.0 29.9958342 37.2184998 5.7004764
254 2 4.0 27.311355 36.6549864 3.853956
255 2 4.0 24.762381 35.9849262 2.4020388
256 3 -2.0 27.8297112 37.0303602 6.0299334
257 3 -2.0 29.0765538 36.8093058 3.5923194
258 3 -2.0 26.4856248 36.3257106 2.2215882
259 3 -2.0 24.2281692 35.8414242 0.5977314
260 2 4.0 27.3028278 38.9218332 6.2359608
261 3 -2.0 26.8229172 38.549955 4.0552062
262 3 -2.0 29.3518638 39.0136068 5.33598
263 3 -2.0 27.7342122 39.2235492 7.973976
264 1 1.0 29.4557676 38.711118 3.1939416
265 2 4.0 29.590533 40.932135 5.1563946
266 2 4.0 26.9060532 40.3686216 3.3098736
267 2 4.0 24.2542518 39.8567754 1.7916642
268 3 -2.0 27.4244094 40.7439954 5.485851
269 3 -2.0 28.6712526 40.522941 3.0482376
270 3 -2.0 24.7341624 40.228653 3.9724188
271 3 -2.0 26.0803236 40.0393452 1.6775058
272 3 -2.0 23.8228674 39.5550594 0.0536496
273 2 4.0 26.8975266 42.6354678 5.691879
274 3 -2.0 23.7273684 41.7482484 1.9976922
275 3 -2.0 26.4176154 42.2635902 3.5111244
276 3 -2.0 28.9465626 42.7272414 4.7918982
277 3 -2.0 27.3289104 42.9371838 7.4298936
278 1 1.0 29.0504664 42.4247532 2.6498592
279 2 4.0 37.5250452 27.7678986 14.1669486
280 2 4.0 34.8781476 27.3091968 12.486567
281 3 -2.0 35.3589216 27.579759 14.496405
282 3 -2.0 36.6057648 27.3587046 12.0587916
283 3 -2.0 32.438772 27.4127676 12.9784044
284 3 -2.0 33.7473516 27.1186482 10.5173532
285 2 4.0 34.8320388 29.4712314 14.702433
286 3 -2.0 31.6618812 28.584012 11.0082462
287 3 -2.0 34.3521282 29.0993538 12.5216784
288 3 -2.0 36.8810748 29.563005 13.8024522
289 3 -2.0 35.2634232 29.772948 16.4404476
290 1 1.0 36.9849786 29.2605168 11.6604132
291 2 4.0 37.119744 31.4815332 13.6228662
292 2 4.0 34.4352642 30.9180204 11.7763458
293 2 4.0 31.7834628 30.4061742 10.2581364
294 3 -2.0 34.9536204 31.2933942 13.9523232
295 3 -2.0 36.2004636 31.0723398 11.5147092
296 3 -2.0 32.2633734 30.7780518 12.4388904
297 3 -2.0 33.6095346 30.588744 10.143978
298 3 -2.0 31.3520784 30.1044582 8.5201212
299 2 4.0 31.7749356 32.6730204 12.6401412
300 2 4.0 34.4267376 33.1848666 14.1583506
301 3 -2.0 31.3720302 32.3434956 10.3074186
302 3 -2.0 33.9468264 32.812989 11.9775966
303 3 -2.0 32.7786156 33.0404658 13.9163112
304 3 -2.0 36.4757736 33.2766402 13.2583698
305 3 -2.0 34.8581214 33.4865826 15.8963658
306 1 1.0 36.5796774 32.974152 11.1163314
307 2 4.0 36.7144422 35.1951684 13.0787844
308 2 4.0 34.029963 34.6316556 11.2322634
309 2 4.0 31.378161 34.1198094 9.714054
310 3 -2.0 34.5483192 35.0070288 13.4082408
311 3 -2.0 35.7951618 34.785975 10.9706274
312 3 -2.0 31.8580722 34.491687 11.8948086
313 3 -2.0 33.2042328 34.3023792 9.5998962
314 3 -2.0 30.9467772 33.8180934 7.9760394
315 2 4.0 31.3696344 36.3866556 12.0960594
316 2 4.0 34.0214358 36.8985018 13.6142688
317 3 -2.0 30.8512782 36.0112818 9.920082
318 3 -2.0 33.5415252 36.5266242 11.4335142
319 3 -2.0 32.195364 36.715932 13.7284266
320 3 -2.0 36.0704718 36.9902754 12.714288
321 3 -2.0 34.4528202 37.2002178 15.3522834
322 1 1.0 36.1743756 36.6877866 10.572249
323 2 4.0 36.309141 38.9088036 12.534702
324 2 4.0 33.6246612 38.3452902 10.6881816
325 2 4.0 30.9728598 37.8334446 9.1699722
326 3 -2.0 34.1430174 38.720664 12.864159
327 3 -2.0 35.3898606 38.4996102 10.4265456
328 3 -2.0 31.4527704 38.2053222 11.3507262
329 3 -2.0 32.7989316 38.0160144 9.0558138
330 3 -2.0 28.9238238 37.741671 10.069953
331 3 -2.0 30.5414754 37.5317286 7.431957
332 2 4.0 28.6112334 39.539583 9.481449
333 2 4.0 30.9643332 40.1002908 11.551977
334 2 4.0 33.6161346 40.612137 13.070187
335 3 -2.0 30.445977 39.724917 9.3759996
336 3 -2.0 33.136224 40.2402594 10.8894324
337 3 -2.0 31.7900628 40.4295672 13.1843448
338 3 -2.0 35.6651706 40.7039106 12.1702056
339 3 -2.0 34.0475184 40.913853 14.8082016
340 1 1.0 35.7690744 40.4014218 10.0281672
341 1 1.0 28.009317 45.4714296 11.1238272
342 2 4.0 35.9038392 42.6224388 11.9906202
343 2 4.0 33.21936 42.0589254 10.1440998
344 2 4.0 30.567558 41.5470792 8.6258898
345 3 -2.0 33.7377162 42.4342992 12.3200766
346 3 -2.0 34.9845588 42.2132448 9.8824632
347 3 -2.0 31.0474692 41.9189568 10.8066444
348 3 -2.0 32.3936298 41.7296496 8.511732
349 3 -2.0 28.5185226 41.4553056 9.5258706
350 3 -2.0 30.1361742 41.2453632 6.8878752
351 2 4.0 27.8745522 43.2504126 9.1613742
352 2 4.0 30.5590314 43.813926 11.0078952
353 2 4.0 33.2108328 44.3257722 12.5261046
354 3 -2.0 30.0406752 43.4385522 8.8319178
355 3 -2.0 28.793832 43.6596066 11.2695312
356 3 -2.0 32.7309222 43.953894 10.34535
357 3 -2.0 31.3847616 44.1432018 12.640263
358 3 -2.0 35.2598688 44.4175458 11.6261238
359 3 -2.0 33.6422172 44.6274882 14.2641192
360 1 1.0 35.3637726 44.115057 9.4840848
361 1 1.0 35.9438298 32.3071932 20.1343812
362 2 4.0 41.1538722 28.894689 19.1546538
363 2 4.0 38.5020708 28.3828428 17.6364438
364 3 -2.0 42.9190716 29.0490084 18.8930172
365 3 -2.0 38.9819814 28.754721 19.8171984
366 3 -2.0 40.3281426 28.5654132 17.522286
367 3 -2.0 36.4530348 28.2910692 18.5364246
368 3 -2.0 38.0706864 28.0811268 15.8984292
369 2 4.0 35.9655438 30.1957266 18.231198
370 2 4.0 38.4935436 30.6496896 20.0184492
371 2 4.0 41.1453456 31.1615358 21.5366586
372 3 -2.0 37.9751874 30.2743158 17.8424718
373 3 -2.0 36.8017518 30.5076462 20.0944494
374 3 -2.0 40.665435 30.7896582 19.355904
375 3 -2.0 39.3192738 30.9789654 21.650817
376 1 1.0 43.2982854 30.9508206 18.4946394
377 1 1.0 35.538528 36.0208284 19.5902994
378 3 -2.0 37.9635384 37.2138168 25.7340798
379 1 1.0 38.3536596 33.1798878 24.2958168
380 2 4.0 43.4330502 33.1718376 20.4570924
381 2 4.0 40.748571 32.6083242 18.6105714
382 2 4.0 38.096769 32.096478 17.092362
383 3 -2.0 41.2669272 32.983698 20.7865488
384 3 -2.0 42.5137698 32.7626436 18.3489354
385 3 -2.0 38.5766802 32.4683556 19.2731166
386 3 -2.0 39.9228408 32.2790484 16.9782036
387 3 -2.0 36.0477336 32.0047044 17.9923428
388 3 -2.0 37.6653852 31.794762 15.3543468
389 2 4.0 35.4037632 33.7998114 17.6278464
390 2 4.0 38.0882424 34.3633248 19.4743668
391 2 4.0 40.7400438 34.8751704 20.9925768
392 3 -2.0 37.5698862 33.987951 17.2983894
393 3 -2.0 36.323043 34.2090054 19.7360034
394 3 -2.0 40.2601332 34.5032928 18.8118222
395 3 -2.0 38.9139726 34.6926006 21.1067346
396 3 -2.0 42.7890798 34.9669446 20.092596
397 3 -2.0 41.1321858 35.0599254 22.5731742
398 1 1.0 42.8929836 34.6644558 17.950557
399 3 -2.0 37.5691446 34.9917114 24.1501128
400 1 1.0 35.1332268 39.7344636 19.0462176
401 3 -2.0 37.4391528 40.909647 25.3496916
402 1 1.0 37.9483584 36.893523 23.751735
403 2 4.0 43.027749 36.8854728 19.91301
404 2 4.0 40.3432692 36.3219594 18.0664896
405 2 4.0 37.6914678 35.8101132 16.5482796
406 3 -2.0 40.8616254 36.6973332 20.242467
407 3 -2.0 42.1084686 36.4762788 17.804853
408 3 -2.0 38.1713784 36.1819908 18.7290342
409 3 -2.0 39.5175396 35.992683 16.4341218
410 3 -2.0 35.6424318 35.7183396 17.448261
411 3 -2.0 37.260084 35.5083972 14.810265
412 2 4.0 34.9984614 37.5134466 17.083764
413 2 4.0 37.6829412 38.0769594 18.930285
414 2 4.0 40.3347426 38.5888056 20.4484944
415 3 -2.0 37.164585 37.7015862 16.7543076
416 3 -2.0 35.9177418 37.92264 19.191921
417 3 -2.0 39.854832 38.216928 18.2677398
418 3 -2.0 38.5086708 38.4062358 20.5626528
419 3 -2.0 42.3837786 38.6805792 19.5485136
420 3 -2.0 40.7661264 38.8905216 22.1865096
421 3 -2.0 33.3841392 37.4688414 17.9818632
422 1 1.0 42.4876824 38.378091 17.4064752
423 2 4.0 38.0831232 39.11454 25.714188
424 3 -2.0 37.3387044 38.698086 23.5092276
425 1 1.0 34.727925 43.4480982 18.5021352
426 3 -2.0 37.0338516 44.6232816 24.8056092
427 1 1.0 37.5430566 40.6071582 23.2076526
428 2 4.0 42.6224472 40.5991074 19.3689282
429 2 4.0 39.937968 40.0355946 17.5224072
430 2 4.0 37.2861666 39.5237484 16.0041978
431 3 -2.0 40.4563242 40.4109678 19.6983846
432 3 -2.0 41.7031674 40.189914 17.2607712
433 3 -2.0 37.7660772 39.895626 18.1849524
434 3 -2.0 39.1122378 39.7063182 15.8900394
435 3 -2.0 35.2371306 39.4319748 16.9041786
436 3 -2.0 36.8547822 39.2220324 14.2661832
437 2 4.0 34.5931602 41.2270818 16.5396822
438 2 4.0 37.2776394 41.7905946 18.3862026
439 2 4.0 39.9294414 42.3024408 19.9044126
440 3 -2.0 36.7592832 41.4152208 16.2102258
441 3 -2.0 35.5124406 41.6362752 18.6478392
442 3 -2.0 39.4495302 41.9305632 17.723658
443 3 -2.0 38.1033696 42.119871 20.0185704
444 3 -2.0 41.9784768 42.3942144 19.0044318
445 3 -2.0 40.3608252 42.6041568 21.6424272
446 3 -2.0 33.1489842 41.142537 17.3405442
447 1 1.0 42.0823806 42.0917256 16.8623928
448 2 4.0 37.677822 42.8281752 25.1701056
449 3 -2.0 36.7585416 42.4189812 23.0619486
450 1 1.0 34.3226238 47.1617334 17.9580534
451 3 -2.0 36.6285498 48.3369168 24.2615274
452 1 1.0 37.1377554 44.3207934 22.6635708
453 2 4.0 42.217146 44.3127426 18.8248458
454 2 4.0 39.5326662 43.7492292 16.9783254
455 2 4.0 36.8808648 43.2373836 15.4601154
456 3 -2.0 40.0510224 44.124603 19.1543028
457 3 -2.0 41.2978656 43.9035492 16.7166888
458 3 -2.0 37.3607754 43.6092612 17.64087
459 3 -2.0 38.7069366 43.4199534 15.3459576
460 3 -2.0 34.8318288 43.14561 16.3600968
461 3 -2.0 36.449481 42.9356676 13.7221008
462 2 4.0 34.1878584 44.9407164 15.9956004
463 2 4.0 36.8723382 45.5042298 17.8421208
464 2 4.0 39.5241396 46.016076 19.3603302
465 3 -2.0 36.353982 45.128856 15.6661434
466 3 -2.0 35.1071388 45.3499104 18.1037568
467 3 -2.0 39.044229 45.6441984 17.1795762
468 3 -2.0 37.6980678 45.8335062 19.4744886
469 3 -2.0 41.5731756 46.1078496 18.4603494
470 3 -2.0 39.9555234 46.317792 21.0983454
471 3 -2.0 32.5735362 44.8961112 16.893699
472 1 1.0 41.6770794 45.8053608 16.318311
473 2 4.0 37.2725202 46.5418098 24.6260238
474 2 4.0 34.9462968 46.0894908 22.914324
475 3 -2.0 33.763389 45.6383034 20.9474256
476 1 1.0 32.801166 28.1820858 54.3194922
477 2 4.0 27.7217754 28.190136 58.1582172
478 2 4.0 30.4062546 28.7536494 0.0047376
479 3 -2.0 29.8878984 28.3782756 57.8287602
480 3 -2.0 35.1070926 29.3572692 0.6229668
481 3 -2.0 33.4894404 29.5672116 3.2609622
482 2 4.0 38.0026818 27.0364278 55.7217696
483 3 -2.0 36.1766106 26.853858 55.835928
484 3 -2.0 40.0517178 27.1282014 54.8217888
485 3 -2.0 38.4340662 27.3381438 57.4597848
486 1 1.0 39.9777876 27.0110766 52.3731312
487 2 4.0 35.751063 27.5621622 0.9874632
488 2 4.0 33.0275784 27.288312 58.939776
489 3 -2.0 33.6258138 27.498873 1.467723
490 3 -2.0 34.8317826 27.1529682 58.8793062
491 3 -2.0 30.6647898 27.2070312 59.798919
492 2 4.0 37.2057252 27.4456362 46.01178
493 2 4.0 39.8902044 28.0091496 47.8583004
494 3 -2.0 39.3718482 27.6337758 45.682323
495 3 -2.0 44.5910424 28.6127694 48.476529
496 3 -2.0 42.9733902 28.8227118 51.114525
497 2 4.0 45.2350128 26.8176624 48.8410254
498 1 1.0 32.3958648 31.8957204 53.7754104
499 2 4.0 27.3164736 31.9037712 57.6141348
500 2 4.0 30.0009534 32.4672846 59.4606558
501 2 4.0 33.0580566 29.2654956 1.5229476
502 3 -2.0 29.4825972 32.0919108 57.2846784
503 3 -2.0 28.6410558 28.59933 0.2663742
504 3 -2.0 32.5781454 28.893618 59.342193
505 3 -2.0 31.2319848 29.0829252 1.6371054
506 3 -2.0 34.7017908 33.0709038 0.0788844
507 3 -2.0 33.0841392 33.2808468 2.7168804
508 3 -2.0 26.1074532 28.1455308 59.0563158
509 1 1.0 35.2109964 29.0547804 58.4809278
510 2 4.0 40.290387 29.0467296 54.6422034
511 2 4.0 37.6059072 28.4832168 52.7956824
512 2 4.0 34.9541058 27.9713706 51.277473
513 3 -2.0 38.1242634 28.8585906 54.9716598
514 3 -2.0 39.3711066 28.6375362 52.5340464
515 3 -2.0 35.4340164 28.3432482 53.4582276
516 3 -2.0 36.7801776 28.1539404 51.1633146
517 3 -2.0 32.9050698 27.879597 52.1774538
518 3 -2.0 34.522722 27.6696546 49.5394584
519 1 1.0 27.8565402 30.411153 0.1206702
520 2 4.0 32.2610994 29.674704 51.8129574
521 2 4.0 34.9455792 30.2382168 53.6594778
522 2 4.0 37.5973806 30.750063 55.1776878
523 3 -2.0 34.427223 29.8628436 51.483501
524 3 -2.0 33.1803798 30.0838974 53.9211144
525 3 -2.0 37.11747 30.3781854 52.9969332
526 3 -2.0 35.7713088 30.5674932 55.2918456
527 3 -2.0 39.6464166 30.8418366 54.277707
528 3 -2.0 38.0287644 31.051779 56.9157024
529 3 -2.0 30.6467772 29.6300988 52.711056
530 1 1.0 39.7503204 30.5393478 52.135668
531 2 4.0 35.3457612 31.2757974 0.4433808
532 2 4.0 32.661282 30.712284 58.5968604
533 2 4.0 30.00948 30.2004378 57.0786504
534 3 -2.0 33.1796382 31.0876578 0.7728378
535 3 -2.0 34.4264808 30.8666034 58.3352238
536 3 -2.0 30.4893912 30.5723154 59.259405
537 3 -2.0 31.8355518 30.3830076 56.9644926
538 3 -2.0 27.960444 30.1086642 57.9786318
539 3 -2.0 29.5780962 29.8987218 55.3406358
540 1 1.0 41.7019878 31.5084534 41.656587
541 2 4.0 36.800424 31.1592714 45.4676976
542 2 4.0 39.4849032 31.7227848 47.3142186
543 2 4.0 42.5420064 28.5209958 49.3765098
544 3 -2.0 38.966547 31.347411 45.1382412
545 3 -2.0 38.1250056 27.8548302 48.1199364
546 3 -2.0 42.0620958 28.1491182 47.1957552
547 3 -2.0 40.7159346 28.338426 49.4906682
548 3 -2.0 44.1857406 32.3264046 47.9324472
549 3 -2.0 42.568089 32.536347 50.5704426
550 3 -2.0 35.591403 27.401031 46.9098786
551 1 1.0 37.3404906 29.6666532 47.974233
552 3 -2.0 47.4925776 30.4410498 45.0284874
553 2 4.0 44.829711 30.5312976 48.2969436
554 2 4.0 42.1452318 29.9677842 46.4504226
555 2 4.0 39.4934298 29.455938 44.9322132
556 3 -2.0 42.663588 30.343158 48.6264
557 3 -2.0 43.9104306 30.1221036 46.1887866
558 3 -2.0 39.973341 29.8278162 47.1129678
559 3 -2.0 41.3195016 29.6385084 44.8180554
560 3 -2.0 37.4443944 29.3641644 45.832194
561 3 -2.0 39.062046 29.154222 43.1941986
562 1 1.0 31.990563 35.6093556 53.2313286
563 2 4.0 26.9111724 35.6174064 57.070053
564 2 4.0 29.5956522 36.1809192 58.9165734
565 2 4.0 32.6527548 32.9791302 0.9788652
566 3 -2.0 29.077296 35.805546 56.7405966
567 3 -2.0 28.235754 32.3129646 59.7222918
568 3 -2.0 32.1728442 32.6072526 58.7981106
569 3 -2.0 30.826683 32.7965604 1.0930236
570 3 -2.0 34.2964896 36.784539 59.5348026
571 3 -2.0 32.6788374 36.9944814 2.172798
572 3 -2.0 25.7021514 31.859166 58.512234
573 1 1.0 34.8056946 32.7684156 57.936846
574 2 4.0 39.8850858 32.7603648 54.098121
575 2 4.0 37.200606 32.196852 52.2516006
576 2 4.0 34.5488046 31.6850058 50.7333906
577 3 -2.0 37.7189622 32.5722252 54.427578
578 3 -2.0 38.9658054 32.3511714 51.989964
579 3 -2.0 35.0287152 32.0568834 52.9141452
580 3 -2.0 36.3748758 31.8675756 50.6192328
581 3 -2.0 32.4997686 31.5932322 51.633372
582 3 -2.0 34.1174202 31.3832898 48.995376
583 1 1.0 27.451239 34.1247882 59.5765878
584 2 4.0 31.8557982 33.3883386 51.2688756
585 2 4.0 34.5402774 33.951852 53.115396
586 2 4.0 37.1920794 34.4636982 54.6336054
587 3 -2.0 34.0219212 33.5764782 50.9394186
588 3 -2.0 32.7750786 33.7975326 53.377032
589 3 -2.0 36.7121682 34.0918206 52.4528514
590 3 -2.0 35.3660076 34.2811284 54.7477638
591 3 -2.0 39.2411154 34.5554718 53.7336246
592 3 -2.0 37.6234632 34.7654142 56.3716206
593 3 -2.0 30.2414754 33.3437334 52.1669742
594 1 1.0 39.3450192 34.252983 51.5915862
595 2 4.0 34.94046 34.989432 59.899299
596 2 4.0 32.2559802 34.4259192 58.052778
597 2 4.0 29.6041788 33.914073 56.5345686
598 3 -2.0 32.7743364 34.801293 0.2287554
599 3 -2.0 34.0211796 34.5802386 57.791142
600 3 -2.0 30.0840894 34.2859506 58.7153232
601 3 -2.0 31.4302506 34.0966428 56.4204102
602 3 -2.0 27.5551428 33.8222994 57.4345494
603 3 -2.0 29.172795 33.612357 54.796554
604 1 1.0 41.4745128 34.8648558 41.0848908
605 2 4.0 36.3951222 34.8729066 44.9236158
606 2 4.0 39.079602 35.43642 46.7701362
607 2 4.0 42.1367046 32.234631 48.832428
608 3 -2.0 38.5612458 35.0610462 44.5941588
609 3 -2.0 37.7197038 31.5684654 47.5758546
610 3 -2.0 41.656794 31.8627534 46.6516734
611 3 -2.0 40.3106334 32.0520606 48.9465858
612 3 -2.0 43.7804394 36.0400392 47.3883648
613 3 -2.0 42.1627872 36.2499816 50.0263608
614 3 -2.0 35.1861012 31.1146662 46.3657968
615 1 1.0 44.2896444 32.0239158 45.7904082
616 1 1.0 36.9351888 33.3802884 47.4301506
617 3 -2.0 42.1909428 33.2524872 41.4545298
618 3 -2.0 44.8212666 33.2120124 42.833277
619 3 -2.0 47.107413 34.0209144 44.2251828
620 3 -2.0 39.7254252 32.5992342 40.020537
621 2 4.0 44.4244098 34.2449328 47.7528612
622 2 4.0 41.73993 33.6814194 45.9063408
623 2 4.0 39.0881286 33.1695732 44.3881314
624 3 -2.0 42.2582862 34.0567932 48.0823182
625 3 -2.0 43.5051294 33.8357388 45.6447042
626 3 -2.0 39.5680392 33.5414508 46.5688854
627 3 -2.0 40.9142004 33.352143 44.273973
628 3 -2.0 37.0390926 33.0777996 45.2881122
629 3 -2.0 38.6567448 32.8678572 42.6501162
630 1 1.0 31.5852618 39.3229908 52.6872462
631 2 4.0 26.5058712 39.3310416 56.5259712
632 2 4.0 29.1903504 39.8945544 58.3724916
633 2 4.0 32.2474536 36.6927654 0.4347834
634 3 -2.0 28.6719942 39.5191806 56.1965142
635 3 -2.0 27.8304528 36.0265998 59.17821
636 3 -2.0 31.767543 36.3208878 58.2540288
637 3 -2.0 30.4213818 36.5101956 0.5489412
638 3 -2.0 33.8911878 40.4981742 58.9907202
639 3 -2.0 32.2735362 40.7081166 1.6287162
640 3 -2.0 25.2968502 35.5728012 57.9681516
641 1 1.0 34.4003934 36.4820508 57.3927636
642 2 4.0 39.479784 36.474 53.5540392
643 2 4.0 36.7953048 35.9104866 51.7075182
644 2 4.0 34.1435028 35.3986404 50.1893088
645 3 -2.0 37.313661 36.2858604 53.8834956
646 3 -2.0 38.5605036 36.064806 51.4458822
647 3 -2.0 34.623414 35.7705186 52.3700634
648 3 -2.0 35.9695746 35.5812108 50.075151
649 3 -2.0 32.0944668 35.3068668 51.0892896
650 3 -2.0 33.712119 35.0969244 48.4512942
651 1 1.0 27.0459378 37.8384228 59.032506
652 2 4.0 31.4504964 37.1019738 50.7247932
653 2 4.0 34.1349762 37.6654872 52.5713142
654 2 4.0 36.7867776 38.1773334 54.0895236
655 3 -2.0 33.61662 37.2901134 50.3953368
656 3 -2.0 32.3697768 37.5111678 52.8329502
657 3 -2.0 36.306867 37.8054558 51.908769
658 3 -2.0 34.9607058 37.994763 54.2036814
659 3 -2.0 38.8358136 38.269107 53.1895428
660 3 -2.0 37.218162 38.4790494 55.8275382
661 3 -2.0 29.8361742 37.0573686 51.6228924
662 1 1.0 38.9397174 37.9666182 51.0475038
663 2 4.0 34.5351582 38.7030672 59.3552166
664 2 4.0 31.850679 38.1395544 57.5086962
665 2 4.0 29.1988776 37.6277082 55.9904862
666 3 -2.0 32.3690352 38.5149276 59.6846736
667 3 -2.0 33.6158784 38.2938738 57.2470596
668 3 -2.0 29.6787882 37.9995858 58.1712408
669 3 -2.0 31.0249488 37.810278 55.8763284
670 3 -2.0 27.1498416 37.5359346 56.8904676
671 3 -2.0 28.7674932 37.3259922 54.2524716
672 1 1.0 41.0692116 38.578491 40.540809
673 2 4.0 35.989821 38.5865418 44.3795334
674 2 4.0 38.6743002 39.1500546 46.2260544
675 2 4.0 41.7314034 35.9482656 48.2883456
676 3 -2.0 38.155944 38.7746814 44.050077
677 3 -2.0 37.3144026 35.2821 47.0317728
678 3 -2.0 41.2514928 35.576388 46.1075916
679 3 -2.0 39.9053316 35.7656958 48.402504
680 3 -2.0 43.3751376 39.7536744 46.844283
681 3 -2.0 41.757486 39.9636168 49.4822784
682 3 -2.0 34.7808 34.8283014 45.8217144
683 1 1.0 43.8843432 35.737551 45.2463264
684 1 1.0 36.5298876 37.0939236 46.8860688