 # Voronoi polycrystal with 2 grains
 
       16605  atoms
           4  atom types
 
      0.000000000000      60.000000000000  xlo xhi
      0.000000000000      60.000000000000  ylo yhi
      0.000000000000      60.000000000000  zlo zhi
 
Masses
 
            1   6.94000000              # Li
            2   47.86700000             # Ti
            3   15.99900000             # O
            4   91.22400000             # Zr
 
Atoms # charge
 
         1    1   1.000000       23.953063800000      29.593543800000      57.447879600000
         2    4   4.000000       24.087829200000      31.814560800000      59.410332600000
         3    3  -2.000000       23.168548800000      31.405366800000      57.302175600000
         4    3  -2.000000       23.639497200000      33.587634600000      59.081050800000
         5    1   1.000000       23.547762600000      33.307179000000      56.903797800000
         6    4   4.000000       23.682527400000      35.528195400000      58.866250800000
         7    3  -2.000000       22.763247600000      35.119002000000      56.758093800000
         8    3  -2.000000       23.183691600000      37.315775400000      58.364352600000
         9    1   1.000000       23.142460800000      37.020814200000      56.359715400000
        10    4   4.000000       23.277226200000      39.241830600000      58.322168400000
        11    3  -2.000000       22.539082800000      38.914459800000      56.236246800000
        12    3  -2.000000       22.633255800000      41.036937600000      57.957672000000
        13    1   1.000000       22.737159600000      40.734448800000      55.815633600000
        14    3  -2.000000       28.793785800000      27.666964800000      53.788740600000
        15    3  -2.000000       27.176133600000      27.876907200000      56.426736600000
        16    3  -2.000000       38.093878800000      26.989899600000      41.601690600000
        17    3  -2.000000       36.660083400000      27.132408000000      44.280298800000
        18    4   4.000000       26.744749800000      27.575191200000      54.688721400000
        19    3  -2.000000       28.388484600000      31.380600000000      53.244658800000
        20    3  -2.000000       26.770832400000      31.590542400000      55.882654200000
        21    1   1.000000       28.897689600000      27.364476600000      51.646702200000
        22    4   4.000000       33.977080200000      27.356425800000      47.807977200000
        23    3  -2.000000       31.810957200000      27.168286200000      48.137434200000
        24    4   4.000000       31.284073800000      29.059759200000      48.343461600000
        25    3  -2.000000       33.333109800000      29.151532800000      47.443480800000
        26    3  -2.000000       31.715458200000      29.361475200000      50.081476800000
        27    1   1.000000       33.630816000000      28.863766800000      45.254283000000
        28    4   4.000000       29.032455000000      29.585493000000      53.609155200000
        29    3  -2.000000       26.866331400000      29.397354000000      53.938611600000
        30    3  -2.000000       28.384327200000      29.456045400000      51.591652800000
        31    3  -2.000000       37.872434400000      30.636100200000      41.098221000000
        32    3  -2.000000       36.254782200000      30.846042600000      43.736217000000
        33    4   4.000000       38.516404800000      28.840993800000      41.462717400000
        34    4   4.000000       26.339448600000      31.288826400000      54.144639600000
        35    3  -2.000000       27.983182800000      35.094235200000      52.700576400000
        36    3  -2.000000       26.365531200000      35.304177600000      55.338572400000
        37    1   1.000000       28.492388400000      31.078111200000      51.102619800000
        38    4   4.000000       33.571779000000      31.070061000000      47.263895400000
        39    3  -2.000000       31.633999200000      30.904395600000      47.921001000000
        40    4   4.000000       30.878772600000      32.773394400000      47.799379800000
        41    3  -2.000000       33.087459600000      32.926789200000      47.002909200000
        42    3  -2.000000       31.310156400000      33.075110400000      49.537394400000
        43    4   4.000000       28.627153200000      33.299128200000      53.065072800000
        44    3  -2.000000       26.461030200000      33.110988600000      53.394529800000
        45    3  -2.000000       27.707872800000      32.889934800000      50.956916400000
        46    3  -2.000000       37.467132600000      34.349735400000      40.554139200000
        47    3  -2.000000       35.849481000000      34.559677800000      43.192134600000
        48    4   4.000000       38.111103000000      32.554628400000      40.918635600000
        49    4   4.000000       25.934146800000      35.002461600000      53.600557800000
        50    3  -2.000000       27.577881600000      38.807870400000      52.156494600000
        51    3  -2.000000       25.960229400000      39.017812800000      54.794490000000
        52    1   1.000000       28.087086600000      34.791746400000      50.558538000000
        53    4   4.000000       33.166477200000      34.783696200000      46.719813000000
        54    3  -2.000000       31.000354200000      34.595556600000      47.049270000000
        55    4   4.000000       30.473471400000      36.487029000000      47.255298000000
        56    3  -2.000000       32.522506800000      36.578802600000      46.355316600000
        57    3  -2.000000       30.904855200000      36.788745600000      48.993312600000
        58    4   4.000000       28.221852000000      37.012763400000      52.520991000000
        59    3  -2.000000       26.055728400000      36.824623800000      52.850447400000
        60    3  -2.000000       27.254026800000      36.697489200000      50.582606400000
        61    3  -2.000000       37.213495200000      38.066053800000      40.140406200000
        62    3  -2.000000       35.444179200000      38.273313000000      42.648052800000
        63    4   4.000000       37.705801800000      36.268263600000      40.374553800000
        64    4   4.000000       25.528845600000      38.716096800000      53.056475400000
        65    3  -2.000000       27.172579800000      42.521505600000      51.612412200000
        66    3  -2.000000       25.554928200000      42.731448000000      54.250408200000
        67    1   1.000000       27.860512800000      38.569273800000      49.951414800000
        68    4   4.000000       32.761176000000      38.497330800000      46.175731200000
        69    3  -2.000000       30.595052400000      38.309191800000      46.505188200000
        70    4   4.000000       30.228496200000      40.098642600000      47.063191200000
        71    3  -2.000000       32.117205600000      40.292437800000      45.811234800000
        72    4   4.000000       27.816550200000      40.726398600000      51.976909200000
        73    3  -2.000000       25.809093000000      40.513506600000      52.425582000000
        74    3  -2.000000       36.656529600000      41.777005800000      39.465975000000
        75    3  -2.000000       35.038878000000      41.986948200000      42.103971000000
        76    4   4.000000       37.351996800000      40.025956800000      40.018639200000
        77    4   4.000000       22.871925000000      42.955465800000      57.778086600000
        78    3  -2.000000       21.952644600000      42.546272400000      55.669929600000
        79    3  -2.000000       22.227954600000      44.750572800000      57.413590200000
        80    1   1.000000       22.331857800000      44.448084000000      55.271551200000
        81    4   4.000000       22.466623200000      46.669101000000      57.234004800000
        82    3  -2.000000       20.300500200000      46.480961400000      57.563461200000
        83    3  -2.000000       21.547342800000      46.259907000000      55.125847800000
        84    4   4.000000       19.954858200000      48.621040800000      57.513859800000
        85    3  -2.000000       21.822652800000      48.464208000000      56.869507800000
        86    1   1.000000       22.020027000000      48.028517400000      54.843747000000
        87    4   4.000000       22.061322000000      50.382736200000      56.689922400000
        88    3  -2.000000       19.895198400000      50.194596600000      57.019379400000
        89    3  -2.000000       21.118977000000      50.131300200000      54.702515400000
        90    4   4.000000       19.399860600000      52.128727200000      57.032572200000
        91    3  -2.000000       21.417351600000      52.177842600000      56.325426000000
        92    3  -2.000000       20.086996200000      52.659300000000      59.024581200000
        93    1   1.000000       21.521255400000      51.875354400000      54.183387600000
        94    4   4.000000       21.656020200000      54.096370800000      56.145840600000
        95    3  -2.000000       19.489897200000      53.908231800000      56.475297000000
        96    3  -2.000000       21.067471800000      53.451143400000      54.018205800000
        97    3  -2.000000       21.012049800000      55.891477800000      55.781344200000
        98    3  -2.000000       19.394398200000      56.101420200000      58.419339600000
        99    1   1.000000       21.163434600000      55.879534800000      53.910098400000
       100    4   4.000000       21.250719000000      57.810006000000      55.601758200000
       101    3  -2.000000       19.084595400000      57.621866400000      55.931215200000
       102    3  -2.000000       20.454692400000      57.553371600000      53.532771600000
       103    3  -2.000000       20.606748600000      59.605113000000      55.237261800000
       104    1   1.000000       20.710652400000      59.302624200000      53.095223400000
       105    4   4.000000       25.123543800000      42.429732000000      52.512393600000
       106    3  -2.000000       26.767278600000      46.235140200000      51.068330400000
       107    3  -2.000000       25.149626400000      46.445082600000      53.706325800000
       108    1   1.000000       27.276483600000      42.219016800000      49.470373800000
       109    4   4.000000       32.355874800000      42.210966000000      45.631649400000
       110    3  -2.000000       29.968275600000      42.004877400000      46.293711000000
       111    4   4.000000       29.662868400000      43.914299400000      46.167133800000
       112    3  -2.000000       31.711904400000      44.006073000000      45.267153000000
       113    3  -2.000000       30.094252200000      44.216015400000      47.905148400000
       114    4   4.000000       27.411249000000      44.440033800000      51.432826800000
       115    3  -2.000000       25.245125400000      44.251894200000      51.762283800000
       116    3  -2.000000       36.251228400000      45.490641000000      38.921893200000
       117    3  -2.000000       34.633576200000      45.700583400000      41.559888600000
       118    4   4.000000       36.895198800000      43.695534000000      39.286389600000
       119    4   4.000000       24.718242600000      46.143366600000      51.968311200000
       120    3  -2.000000       26.361976800000      49.948775400000      50.524248600000
       121    3  -2.000000       24.744325200000      50.158717800000      53.162244000000
       122    1   1.000000       26.989378200000      46.211857800000      49.187201400000
       123    4   4.000000       31.950573000000      45.924601200000      45.087567000000
       124    3  -2.000000       31.478970000000      47.717758200000      44.824489200000
       125    3  -2.000000       29.688951000000      47.929650600000      47.361066600000
       126    4   4.000000       27.005947200000      48.153668400000      50.888745000000
       127    3  -2.000000       24.768269400000      47.975302800000      51.404707200000
       128    3  -2.000000       35.845926600000      49.204275600000      38.377810800000
       129    3  -2.000000       34.228275000000      49.414218000000      41.015806800000
       130    4   4.000000       36.489897000000      47.409169200000      38.742307200000
       131    4   4.000000       24.551001600000      49.723477200000      51.716630400000
       132    3  -2.000000       25.956675600000      53.662410600000      49.980166200000
       133    3  -2.000000       24.339023400000      53.872353000000      52.618162200000
       134    1   1.000000       26.465880600000      49.646286600000      48.382209600000
       135    4   4.000000       31.545271800000      49.638236400000      44.543485200000
       136    3  -2.000000       30.901301400000      51.433343400000      44.178988800000
       137    3  -2.000000       29.283649200000      51.643285800000      46.816984200000
       138    4   4.000000       26.600646000000      51.867303600000      50.344662600000
       139    3  -2.000000       24.434522400000      51.679164000000      50.674119600000
       140    3  -2.000000       35.585185800000      52.779700800000      37.834200600000
       141    3  -2.000000       33.822973800000      53.127853200000      40.471724400000
       142    4   4.000000       36.084595800000      51.122803800000      38.198225400000
       143    4   4.000000       23.907639600000      53.570637000000      50.880147000000
       144    3  -2.000000       25.739289000000      57.369381000000      49.504227600000
       145    3  -2.000000       23.933722200000      57.585988200000      52.074079800000
       146    4   4.000000       31.139970000000      53.351871600000      43.999402800000
       147    3  -2.000000       30.491457000000      55.163266800000      43.834190400000
       148    3  -2.000000       28.878348000000      55.356920400000      46.272902400000
       149    4   4.000000       26.195344800000      55.580938800000      49.800580800000
       150    3  -2.000000       24.320041800000      55.230742200000      50.351759400000
       151    3  -2.000000       35.035324200000      56.631546000000      37.289646600000
       152    3  -2.000000       33.417672000000      56.841488400000      39.927642600000
       153    4   4.000000       35.708950200000      54.844883400000      37.851751800000
       154    4   4.000000       23.502338400000      57.284272200000      50.336065200000
       155    3  -2.000000       25.146072600000       1.089681000000      48.892002000000
       156    3  -2.000000       23.528421000000       1.299623400000      51.529998000000
       157    4   4.000000       30.734668800000      57.065506200000      43.455321000000
       158    3  -2.000000       30.090698400000      58.860613200000      43.090824600000
       159    3  -2.000000       28.473046200000      59.070555600000      45.728820000000
       160    4   4.000000       25.790043000000      59.294574000000      49.256498400000
       161    3  -2.000000       23.623920000000      59.106434400000      49.585955400000
       162    3  -2.000000       33.076337400000       0.718517400000      39.479532000000
       163    3  -2.000000       37.956996000000      58.326055800000      33.582382800000
       164    4   4.000000       35.273992800000      58.550074200000      37.110061200000
       165    4   4.000000       20.845417200000       1.523641200000      55.057676400000
       166    3  -2.000000       20.201446800000       3.318748200000      54.693180000000
       167    1   1.000000       20.305350600000       3.016259400000      52.551141000000
       168    4   4.000000       20.440116000000       5.237276400000      54.513594000000
       169    3  -2.000000       19.796145600000       7.032383400000      54.149097600000
       170    1   1.000000       20.037365400000       6.711929400000      52.382320800000
       171    4   4.000000       20.034814800000       8.950911600000      53.969512200000
       172    3  -2.000000       19.390844400000      10.746018000000      53.605015800000
       173    4   4.000000       19.629513000000      12.664546200000      53.425429800000
       174    4   4.000000       19.224211800000      16.378181400000      52.881348000000
       175    4   4.000000       23.097036600000       0.997906800000      49.791982800000
       176    3  -2.000000       24.740771400000       4.803315600000      48.347920200000
       177    3  -2.000000       23.123119200000       5.013258000000      50.985915600000
       178    4   4.000000       30.329367000000       0.779141400000      42.911238600000
       179    3  -2.000000       29.685396600000       2.574248400000      42.546742200000
       180    3  -2.000000       28.067745000000       2.784190800000      45.184738200000
       181    4   4.000000       25.384741800000       3.008208600000      48.712416600000
       182    3  -2.000000       23.218618200000       2.820069600000      49.041873000000
       183    3  -2.000000       32.607069000000       4.268758200000      38.839478400000
       184    4   4.000000       34.868691600000       2.263709400000      36.565978800000
       185    4   4.000000       22.899276600000       4.443796800000      49.460595000000
       186    3  -2.000000       24.335469600000       8.516950800000      47.803837800000
       187    3  -2.000000       22.717818000000       8.726893200000      50.441833800000
       188    4   4.000000       30.012126600000       4.470029400000      42.545280000000
       189    3  -2.000000       29.456532600000       6.218143200000      41.939365200000
       190    3  -2.000000       27.662443800000       6.497826000000      44.640655800000
       191    4   4.000000       24.979440000000       6.721843800000      48.168334200000
       192    3  -2.000000       32.309611200000       7.826853600000      38.360026800000
       193    4   4.000000       34.463389800000       5.977344000000      36.021897000000
       194    3  -2.000000       23.930168400000      12.230586000000      47.259756000000
       195    3  -2.000000       22.312516200000      12.440528400000      49.897751400000
       196    4   4.000000       29.518764600000       8.206411800000      41.823074400000
       197    3  -2.000000       28.874794200000      10.001518800000      41.458578000000
       198    3  -2.000000       27.380106600000      10.345534200000      44.179665000000
       199    4   4.000000       24.574138800000      10.435479000000      47.624252400000
       200    3  -2.000000       31.926821400000      11.675895600000      37.901654400000
       201    4   4.000000       34.058088600000       9.690979200000      35.477815200000
       202    3  -2.000000       23.524866600000      15.944221200000      46.715673600000
       203    3  -2.000000       21.907215000000      16.154163600000      49.353669600000
       204    4   4.000000       29.113462800000      11.920047000000      41.278992600000
       205    3  -2.000000       28.505206800000      13.448097600000      41.210140200000
       206    3  -2.000000       26.851840800000      13.925095800000      43.552491600000
       207    4   4.000000       24.168837000000      14.149114200000      47.080170000000
       208    3  -2.000000       31.391164800000      15.409663800000      37.207231800000
       209    4   4.000000       33.652786800000      13.404614400000      34.933732800000
       210    4   4.000000       28.708161600000      15.633681600000      40.734910800000
       211    3  -2.000000       28.064191200000      17.428788600000      40.370413800000
       212    3  -2.000000       26.446539000000      17.638731000000      43.008409800000
       213    4   4.000000       23.763535800000      17.862749400000      46.536088200000
       214    4   4.000000       38.898845400000      26.936054400000      20.562531000000
       215    3  -2.000000       37.133646000000      26.781735000000      20.824167600000
       216    3  -2.000000       41.070736200000      27.076023000000      19.899986400000
       217    3  -2.000000       41.825700600000      27.333937800000       8.001274200000
       218    3  -2.000000       40.208048400000      27.543880200000      10.639270200000
       219    3  -2.000000       49.508142000000      26.866815000000      58.452220200000
       220    1   1.000000       45.833080800000      27.849058200000       8.532025800000
       221    4   4.000000       40.753690200000      27.857109000000      12.370750800000
       222    4   4.000000       43.438169400000      28.420622400000      14.217271200000
       223    3  -2.000000       42.919813200000      28.045248600000      12.041293800000
       224    3  -2.000000       48.139006800000      29.024241600000      14.835500400000
       225    3  -2.000000       52.899776400000      26.862609000000       8.993709600000
       226    3  -2.000000       51.465981000000      27.005116800000      11.672318400000
       227    3  -2.000000       46.659930600000      27.145887000000      15.694202400000
       228    3  -2.000000       47.599360800000      27.028084200000      12.875500200000
       229    1   1.000000       55.317030600000      27.104559000000      56.385588600000
       230    4   4.000000       50.059805400000      27.297972600000      -0.082305600000
       231    4   4.000000       52.922119200000      27.676122600000       2.070834000000
       232    3  -2.000000       52.403763000000      27.300748800000      59.894856600000
       233    3  -2.000000       57.622957200000      28.279742400000       2.689062600000
       234    3  -2.000000       56.005305000000      28.489684800000       5.327058600000
       235    3  -2.000000       30.567768000000      27.872701200000       6.968226000000
       236    1   1.000000       30.671671800000      27.570212400000       4.826187600000
       237    4   4.000000       30.806437200000      29.791229400000       6.788640600000
       238    4   4.000000       28.121957400000      29.227716600000       4.942120200000
       239    3  -2.000000       29.887156800000      29.382036000000       4.680483600000
       240    3  -2.000000       27.296227800000      28.898440200000       3.309752400000
       241    3  -2.000000       27.633520200000      31.122685200000       5.143370400000
       242    3  -2.000000       30.162466800000      31.586336400000       6.424144200000
       243    1   1.000000       30.266370600000      31.283847600000       4.282105800000
       244    4   4.000000       30.401135400000      33.504864600000       6.244558800000
       245    4   4.000000       27.716656200000      32.941351200000       4.398037800000
       246    3  -2.000000       28.235012400000      33.316725000000       6.574015200000
       247    3  -2.000000       29.481855600000      33.095670600000       4.136401800000
       248    3  -2.000000       26.890926000000      32.612075400000       2.765670000000
       249    4   4.000000       27.708129600000      35.208198000000       6.780043200000
       250    3  -2.000000       27.228218400000      34.836320400000       4.599288600000
       251    3  -2.000000       29.757165000000      35.299971600000       5.880062400000
       252    1   1.000000       29.861068800000      34.997482800000       3.738023400000
       253    4   4.000000       29.995834200000      37.218499800000       5.700476400000
       254    4   4.000000       27.311355000000      36.654986400000       3.853956000000
       255    4   4.000000       24.762381000000      35.984926200000       2.402038800000
       256    3  -2.000000       27.829711200000      37.030360200000       6.029933400000
       257    3  -2.000000       29.076553800000      36.809305800000       3.592319400000
       258    3  -2.000000       26.485624800000      36.325710600000       2.221588200000
       259    3  -2.000000       24.228169200000      35.841424200000       0.597731400000
       260    4   4.000000       27.302827800000      38.921833200000       6.235960800000
       261    3  -2.000000       26.822917200000      38.549955000000       4.055206200000
       262    3  -2.000000       29.351863800000      39.013606800000       5.335980000000
       263    3  -2.000000       27.734212200000      39.223549200000       7.973976000000
       264    1   1.000000       29.455767600000      38.711118000000       3.193941600000
       265    4   4.000000       29.590533000000      40.932135000000       5.156394600000
       266    4   4.000000       26.906053200000      40.368621600000       3.309873600000
       267    4   4.000000       24.254251800000      39.856775400000       1.791664200000
       268    3  -2.000000       27.424409400000      40.743995400000       5.485851000000
       269    3  -2.000000       28.671252600000      40.522941000000       3.048237600000
       270    3  -2.000000       24.734162400000      40.228653000000       3.972418800000
       271    3  -2.000000       26.080323600000      40.039345200000       1.677505800000
       272    3  -2.000000       23.822867400000      39.555059400000       0.053649600000
       273    4   4.000000       26.897526600000      42.635467800000       5.691879000000
       274    3  -2.000000       23.727368400000      41.748248400000       1.997692200000
       275    3  -2.000000       26.417615400000      42.263590200000       3.511124400000
       276    3  -2.000000       28.946562600000      42.727241400000       4.791898200000
       277    3  -2.000000       27.328910400000      42.937183800000       7.429893600000
       278    1   1.000000       29.050466400000      42.424753200000       2.649859200000
       279    4   4.000000       37.525045200000      27.767898600000      14.166948600000
       280    4   4.000000       34.878147600000      27.309196800000      12.486567000000
       281    3  -2.000000       35.358921600000      27.579759000000      14.496405000000
       282    3  -2.000000       36.605764800000      27.358704600000      12.058791600000
       283    3  -2.000000       32.438772000000      27.412767600000      12.978404400000
       284    3  -2.000000       33.747351600000      27.118648200000      10.517353200000
       285    4   4.000000       34.832038800000      29.471231400000      14.702433000000
       286    3  -2.000000       31.661881200000      28.584012000000      11.008246200000
       287    3  -2.000000       34.352128200000      29.099353800000      12.521678400000
       288    3  -2.000000       36.881074800000      29.563005000000      13.802452200000
       289    3  -2.000000       35.263423200000      29.772948000000      16.440447600000
       290    1   1.000000       36.984978600000      29.260516800000      11.660413200000
       291    4   4.000000       37.119744000000      31.481533200000      13.622866200000
       292    4   4.000000       34.435264200000      30.918020400000      11.776345800000
       293    4   4.000000       31.783462800000      30.406174200000      10.258136400000
       294    3  -2.000000       34.953620400000      31.293394200000      13.952323200000
       295    3  -2.000000       36.200463600000      31.072339800000      11.514709200000
       296    3  -2.000000       32.263373400000      30.778051800000      12.438890400000
       297    3  -2.000000       33.609534600000      30.588744000000      10.143978000000
       298    3  -2.000000       31.352078400000      30.104458200000       8.520121200000
       299    4   4.000000       31.774935600000      32.673020400000      12.640141200000
       300    4   4.000000       34.426737600000      33.184866600000      14.158350600000
       301    3  -2.000000       31.372030200000      32.343495600000      10.307418600000
       302    3  -2.000000       33.946826400000      32.812989000000      11.977596600000
       303    3  -2.000000       32.778615600000      33.040465800000      13.916311200000
       304    3  -2.000000       36.475773600000      33.276640200000      13.258369800000
       305    3  -2.000000       34.858121400000      33.486582600000      15.896365800000
       306    1   1.000000       36.579677400000      32.974152000000      11.116331400000
       307    4   4.000000       36.714442200000      35.195168400000      13.078784400000
       308    4   4.000000       34.029963000000      34.631655600000      11.232263400000
       309    4   4.000000       31.378161000000      34.119809400000       9.714054000000
       310    3  -2.000000       34.548319200000      35.007028800000      13.408240800000
       311    3  -2.000000       35.795161800000      34.785975000000      10.970627400000
       312    3  -2.000000       31.858072200000      34.491687000000      11.894808600000
       313    3  -2.000000       33.204232800000      34.302379200000       9.599896200000
       314    3  -2.000000       30.946777200000      33.818093400000       7.976039400000
       315    4   4.000000       31.369634400000      36.386655600000      12.096059400000
       316    4   4.000000       34.021435800000      36.898501800000      13.614268800000
       317    3  -2.000000       30.851278200000      36.011281800000       9.920082000000
       318    3  -2.000000       33.541525200000      36.526624200000      11.433514200000
       319    3  -2.000000       32.195364000000      36.715932000000      13.728426600000
       320    3  -2.000000       36.070471800000      36.990275400000      12.714288000000
       321    3  -2.000000       34.452820200000      37.200217800000      15.352283400000