 # File generated with Atomsk by Metal on 2023-03-12 11:14:19
 
       15060  atoms
           3  atom types
 
      0.000000000000      61.713600000000  xlo xhi
      0.000000000000      56.626500000000  ylo yhi
      0.000000000000      55.939029220000  zlo zhi
      0.000000000000      -9.486988900000       0.000000000000  xy xz yz
 
Atoms # charge
 
         1    1   1.000000        7.842106458364       3.775100188755       2.397080820256
         2    2   4.000000        1.697236669293       3.775100188755       0.730749998581
         3    2   4.000000        1.866488495983       3.775100188755       4.033017729795
         4    2   4.000000        2.276618304644       0.000000000000       7.103977015794
         5    3  -2.000000        3.279063690434       3.775100188755       2.258444886579
         6    3  -2.000000        0.582873989391       0.000000000000       2.783805789133
         7    3  -2.000000        3.716418384318       0.000000000000       5.357187410221
         8    3  -2.000000        1.073054542809       0.000000000000       5.713892139677
         9    3  -2.000000        4.240282063159       3.775100188755       8.181456136750
        10    3  -2.000000        1.158933286367       3.775100188755       8.535270496566
        11    3  -2.000000        0.000000000000       0.000000000000       0.000000000000
        12    1   1.000000        6.005128693347       0.000000000000       6.926090902874
        13    2   4.000000       12.149998577287       0.000000000000       8.592421165159
        14    2   4.000000       11.980746655727       0.000000000000       5.290153993335
        15    2   4.000000       11.570616847066       0.000000000000       2.219194707336
        16    3  -2.000000       10.568171556146       0.000000000000       7.064726277161
        17    3  -2.000000       13.264361162319       0.000000000000       6.539365933997
        18    3  -2.000000       10.130816862261       0.000000000000       3.965983753519
        19    3  -2.000000       12.774180608901       0.000000000000       3.609279583453
        20    3  -2.000000        9.606953088551       0.000000000000       1.141715586380
        21    3  -2.000000       12.688301865344       0.000000000000       0.787901226564
        22    1   1.000000        0.127906458364       1.887549811245       2.397080820256
        23    2   4.000000        9.411436669293       1.887549811245       0.730749998581
        24    2   4.000000        9.580688495983       1.887549811245       4.033017729795
        25    2   4.000000        9.990818304645       1.887549811245       7.103977015794
        26    3  -2.000000       10.993263690434       1.887549811245       2.258444886579
        27    3  -2.000000        8.297073989391       1.887549811245       2.783805789133
        28    3  -2.000000       11.430618384318       1.887549811245       5.357187410221
        29    3  -2.000000        8.787254542810       1.887549811245       5.713892139677
        30    3  -2.000000       11.954482063159       1.887549811245       8.181456136750
        31    3  -2.000000        8.873133286367       1.887549811245       8.535270496566
        32    3  -2.000000        7.714200000000       1.887549811245       0.000000000000
        33    1   1.000000       13.719328693346       1.887549811245       6.926090902874
        34    2   4.000000        4.435798577287       1.887549811245       8.592421165159
        35    2   4.000000        4.266546655727       1.887549811245       5.290153993335
        36    2   4.000000        3.856416847066       1.887549811245       2.219194707336
        37    3  -2.000000        2.853971556146       1.887549811245       7.064726277161
        38    3  -2.000000        5.550161162319       1.887549811245       6.539365933997
        39    3  -2.000000        2.416616862261       1.887549811245       3.965983753519
        40    3  -2.000000        5.059980608901       1.887549811245       3.609279583453
        41    3  -2.000000        1.892753088551       1.887549811245       1.141715586380
        42    3  -2.000000        4.974101865344       1.887549811245       0.787901226564
        43    1   1.000000       23.270506458364       3.775100188755       2.397080820256
        44    2   4.000000       17.125636669293       3.775100188755       0.730749998581
        45    2   4.000000       17.294888495983       3.775100188755       4.033017729795
        46    2   4.000000       17.705018304644       0.000000000000       7.103977015794
        47    3  -2.000000       18.707463690434       3.775100188755       2.258444886579
        48    3  -2.000000       16.011273989392       0.000000000000       2.783805789133
        49    3  -2.000000       19.144818384318       0.000000000000       5.357187410221
        50    3  -2.000000       16.501454542810       0.000000000000       5.713892139677
        51    3  -2.000000       19.668682063159       3.775100188755       8.181456136750
        52    3  -2.000000       16.587333286367       3.775100188755       8.535270496566
        53    3  -2.000000       15.428400000000       0.000000000000       0.000000000000
        54    2   4.000000       27.578398577287       0.000000000000       8.592421165159
        55    2   4.000000       27.409146655727       0.000000000000       5.290153993335
        56    2   4.000000       26.999016847066       0.000000000000       2.219194707336
        57    3  -2.000000       25.996571556146       0.000000000000       7.064726277161
        58    3  -2.000000       28.692761162319       0.000000000000       6.539365933997
        59    3  -2.000000       25.559216862261       0.000000000000       3.965983753519
        60    3  -2.000000       28.202580608901       0.000000000000       3.609279583453
        61    3  -2.000000       25.035353088551       0.000000000000       1.141715586380
        62    3  -2.000000       28.116701865343       0.000000000000       0.787901226564
        63    1   1.000000       15.556306458364       1.887549811245       2.397080820256
        64    2   4.000000       24.839836669293       1.887549811245       0.730749998581
        65    2   4.000000       25.009088495983       1.887549811245       4.033017729795
        66    2   4.000000       25.419218304644       1.887549811245       7.103977015794
        67    3  -2.000000       26.421663690434       1.887549811245       2.258444886579
        68    3  -2.000000       23.725473989392       1.887549811245       2.783805789133
        69    3  -2.000000       26.859018384318       1.887549811245       5.357187410221
        70    3  -2.000000       24.215654542809       1.887549811245       5.713892139677
        71    3  -2.000000       27.382882063159       1.887549811245       8.181456136750
        72    3  -2.000000       24.301533286367       1.887549811245       8.535270496566
        73    3  -2.000000       23.142600000000       1.887549811245       0.000000000000
        74    1   1.000000       29.147728693347       1.887549811245       6.926090902874
        75    2   4.000000       19.864198577287       1.887549811245       8.592421165159
        76    2   4.000000       19.694946655727       1.887549811245       5.290153993335
        77    2   4.000000       19.284816847066       1.887549811245       2.219194707336
        78    3  -2.000000       18.282371556146       1.887549811245       7.064726277161
        79    3  -2.000000       20.978561162319       1.887549811245       6.539365933997
        80    3  -2.000000       17.845016862261       1.887549811245       3.965983753519
        81    3  -2.000000       20.488380608901       1.887549811245       3.609279583453
        82    3  -2.000000       17.321153088551       1.887549811245       1.141715586380
        83    3  -2.000000       20.402501865343       1.887549811245       0.787901226564
        84    1   1.000000       38.698906458364       3.775100188755       2.397080820256
        85    2   4.000000       32.554036669293       3.775100188755       0.730749998581
        86    2   4.000000       32.723288495983       3.775100188755       4.033017729795
        87    2   4.000000       33.133418304645       0.000000000000       7.103977015794
        88    3  -2.000000       34.135863690434       3.775100188755       2.258444886579
        89    3  -2.000000       31.439673989391       0.000000000000       2.783805789133
        90    3  -2.000000       34.573218384318       0.000000000000       5.357187410221
        91    3  -2.000000       31.929854542809       0.000000000000       5.713892139677
        92    3  -2.000000       35.097082063159       3.775100188755       8.181456136750
        93    3  -2.000000       32.015733286367       3.775100188755       8.535270496566
        94    3  -2.000000       30.856800000000       0.000000000000       0.000000000000
        95    1   1.000000       36.861928693346       0.000000000000       6.926090902874
        96    2   4.000000       43.006798577287       0.000000000000       8.592421165159
        97    2   4.000000       42.837546655727       0.000000000000       5.290153993335
        98    2   4.000000       42.427416847066       0.000000000000       2.219194707336
        99    3  -2.000000       41.424971556146       0.000000000000       7.064726277161
       100    3  -2.000000       44.121161162319       0.000000000000       6.539365933997
       101    3  -2.000000       40.987616862261       0.000000000000       3.965983753519
       102    3  -2.000000       43.630980608901       0.000000000000       3.609279583453
       103    3  -2.000000       40.463753088551       0.000000000000       1.141715586380
       104    3  -2.000000       43.545101865343       0.000000000000       0.787901226564
       105    1   1.000000       30.984706458364       1.887549811245       2.397080820256
       106    2   4.000000       40.268236669293       1.887549811245       0.730749998581
       107    2   4.000000       40.437488495983       1.887549811245       4.033017729795
       108    2   4.000000       40.847618304644       1.887549811245       7.103977015794
       109    3  -2.000000       41.850063690434       1.887549811245       2.258444886579
       110    3  -2.000000       39.153873989391       1.887549811245       2.783805789133
       111    3  -2.000000       42.287418384318       1.887549811245       5.357187410221
       112    3  -2.000000       39.644054542809       1.887549811245       5.713892139677
       113    3  -2.000000       42.811282063159       1.887549811245       8.181456136750
       114    3  -2.000000       39.729933286367       1.887549811245       8.535270496566
       115    3  -2.000000       38.571000000000       1.887549811245       0.000000000000
       116    1   1.000000       44.576128693346       1.887549811245       6.926090902874
       117    2   4.000000       35.292598577287       1.887549811245       8.592421165159
       118    2   4.000000       35.123346655727       1.887549811245       5.290153993335
       119    2   4.000000       34.713216847066       1.887549811245       2.219194707336
       120    3  -2.000000       33.710771556146       1.887549811245       7.064726277161
       121    3  -2.000000       36.406961162319       1.887549811245       6.539365933997
       122    3  -2.000000       33.273416862261       1.887549811245       3.965983753519
       123    3  -2.000000       35.916780608901       1.887549811245       3.609279583453
       124    3  -2.000000       32.749553088551       1.887549811245       1.141715586380
       125    3  -2.000000       35.830901865343       1.887549811245       0.787901226564
       126    1   1.000000       54.127306458364       3.775100188755       2.397080820256
       127    2   4.000000       47.982436669293       3.775100188755       0.730749998581
       128    2   4.000000       48.151688495983       3.775100188755       4.033017729795
       129    2   4.000000       48.561818304644       0.000000000000       7.103977015794
       130    3  -2.000000       49.564263690434       3.775100188755       2.258444886579
       131    3  -2.000000       46.868073989391       0.000000000000       2.783805789133
       132    3  -2.000000       50.001618384318       0.000000000000       5.357187410221
       133    3  -2.000000       47.358254542809       0.000000000000       5.713892139677
       134    3  -2.000000       50.525482063159       3.775100188755       8.181456136750
       135    3  -2.000000       47.444133286367       3.775100188755       8.535270496566
       136    3  -2.000000       46.285200000000       0.000000000000       0.000000000000
       137    1   1.000000       52.290328693347       0.000000000000       6.926090902874
       138    2   4.000000       58.435198577287       0.000000000000       8.592421165159
       139    2   4.000000       58.265946655727       0.000000000000       5.290153993335
       140    2   4.000000       57.855816847066       0.000000000000       2.219194707336
       141    3  -2.000000       56.853371556146       0.000000000000       7.064726277161
       142    3  -2.000000       59.549561162319       0.000000000000       6.539365933997
       143    3  -2.000000       56.416016862261       0.000000000000       3.965983753519
       144    3  -2.000000       59.059380608901       0.000000000000       3.609279583453
       145    3  -2.000000       55.892153088551       0.000000000000       1.141715586380
       146    3  -2.000000       58.973501865344       0.000000000000       0.787901226564
       147    1   1.000000       46.413106458364       1.887549811245       2.397080820256
       148    2   4.000000       55.696636669293       1.887549811245       0.730749998581
       149    2   4.000000       55.865888495983       1.887549811245       4.033017729795
       150    2   4.000000       56.276018304644       1.887549811245       7.103977015794
       151    3  -2.000000       57.278463690434       1.887549811245       2.258444886579
       152    3  -2.000000       54.582273989391       1.887549811245       2.783805789133
       153    3  -2.000000       57.715818384318       1.887549811245       5.357187410221
       154    3  -2.000000       55.072454542809       1.887549811245       5.713892139677
       155    3  -2.000000       58.239682063159       1.887549811245       8.181456136750
       156    3  -2.000000       55.158333286367       1.887549811245       8.535270496566
       157    3  -2.000000       53.999400000000       1.887549811245       0.000000000000
       158    1   1.000000       60.004528693347       1.887549811245       6.926090902874
       159    2   4.000000       50.720998577287       1.887549811245       8.592421165159
       160    2   4.000000       50.551746655727       1.887549811245       5.290153993335
       161    2   4.000000       50.141616847066       1.887549811245       2.219194707336
       162    3  -2.000000       49.139171556146       1.887549811245       7.064726277161
       163    3  -2.000000       51.835361162319       1.887549811245       6.539365933997
       164    3  -2.000000       48.701816862261       1.887549811245       3.965983753519
       165    3  -2.000000       51.345180608901       1.887549811245       3.609279583453
       166    3  -2.000000       48.177953088551       1.887549811245       1.141715586380
       167    3  -2.000000       51.259301865343       1.887549811245       0.787901226564
       168    1   1.000000        7.842106458364       7.550199811245       2.397080820256
       169    2   4.000000        1.697236669293       7.550199811245       0.730749998581
       170    2   4.000000        1.866488495983       7.550199811245       4.033017729795
       171    2   4.000000        2.276618304644       3.775100188755       7.103977015794
       172    3  -2.000000        3.279063690434       7.550199811245       2.258444886579
       173    3  -2.000000        0.582873989391       3.775100188755       2.783805789133
       174    3  -2.000000        3.716418384318       3.775100188755       5.357187410221
       175    3  -2.000000        1.073054542809       3.775100188755       5.713892139677
       176    3  -2.000000        4.240282063159       7.550199811245       8.181456136750
       177    3  -2.000000        1.158933286367       7.550199811245       8.535270496566
       178    3  -2.000000        0.000000000000       3.775100188755       0.000000000000
       179    1   1.000000        6.005128693347       3.775100188755       6.926090902874
       180    2   4.000000       12.149998577287       3.775100188755       8.592421165159
       181    2   4.000000       11.980746655727       3.775100188755       5.290153993335
       182    2   4.000000       11.570616847066       3.775100188755       2.219194707336
       183    3  -2.000000       10.568171556146       3.775100188755       7.064726277161
       184    3  -2.000000       13.264361162319       3.775100188755       6.539365933997
       185    3  -2.000000       10.130816862261       3.775100188755       3.965983753519
       186    3  -2.000000       12.774180608901       3.775100188755       3.609279583453
       187    3  -2.000000        9.606953088551       3.775100188755       1.141715586380
       188    3  -2.000000       12.688301865344       3.775100188755       0.787901226564
       189    1   1.000000        0.127906458364       5.662650000000       2.397080820256
       190    2   4.000000        9.411436669293       5.662650000000       0.730749998581
       191    2   4.000000        9.580688495983       5.662650000000       4.033017729795
       192    2   4.000000        9.990818304645       5.662650000000       7.103977015794
       193    3  -2.000000       10.993263690434       5.662650000000       2.258444886579
       194    3  -2.000000        8.297073989391       5.662650000000       2.783805789133
       195    3  -2.000000       11.430618384318       5.662650000000       5.357187410221
       196    3  -2.000000        8.787254542810       5.662650000000       5.713892139677
       197    3  -2.000000       11.954482063159       5.662650000000       8.181456136750
       198    3  -2.000000        8.873133286367       5.662650000000       8.535270496566
       199    3  -2.000000        7.714200000000       5.662650000000       0.000000000000
       200    1   1.000000       13.719328693346       5.662650000000       6.926090902874
       201    2   4.000000        4.435798577287       5.662650000000       8.592421165159
       202    2   4.000000        4.266546655727       5.662650000000       5.290153993335
       203    2   4.000000        3.856416847066       5.662650000000       2.219194707336
       204    3  -2.000000        2.853971556146       5.662650000000       7.064726277161
       205    3  -2.000000        5.550161162319       5.662650000000       6.539365933997
       206    3  -2.000000        2.416616862261       5.662650000000       3.965983753519
       207    3  -2.000000        5.059980608901       5.662650000000       3.609279583453
       208    3  -2.000000        1.892753088551       5.662650000000       1.141715586380
       209    3  -2.000000        4.974101865344       5.662650000000       0.787901226564
       210    1   1.000000       23.270506458364       7.550199811245       2.397080820256
       211    2   4.000000       17.125636669293       7.550199811245       0.730749998581
       212    2   4.000000       17.294888495983       7.550199811245       4.033017729795
       213    2   4.000000       17.705018304644       3.775100188755       7.103977015794
       214    3  -2.000000       18.707463690434       7.550199811245       2.258444886579
       215    3  -2.000000       16.011273989392       3.775100188755       2.783805789133
       216    3  -2.000000       19.144818384318       3.775100188755       5.357187410221
       217    3  -2.000000       16.501454542810       3.775100188755       5.713892139677
       218    3  -2.000000       19.668682063159       7.550199811245       8.181456136750
       219    3  -2.000000       16.587333286367       7.550199811245       8.535270496566
       220    3  -2.000000       15.428400000000       3.775100188755       0.000000000000
       221    2   4.000000       27.578398577287       3.775100188755       8.592421165159
       222    2   4.000000       27.409146655727       3.775100188755       5.290153993335
       223    2   4.000000       26.999016847066       3.775100188755       2.219194707336
       224    3  -2.000000       25.996571556146       3.775100188755       7.064726277161
       225    3  -2.000000       28.692761162319       3.775100188755       6.539365933997
       226    3  -2.000000       25.559216862261       3.775100188755       3.965983753519
       227    3  -2.000000       28.202580608901       3.775100188755       3.609279583453
       228    3  -2.000000       25.035353088551       3.775100188755       1.141715586380
       229    3  -2.000000       28.116701865343       3.775100188755       0.787901226564
       230    1   1.000000       15.556306458364       5.662650000000       2.397080820256
       231    2   4.000000       24.839836669293       5.662650000000       0.730749998581
       232    2   4.000000       25.009088495983       5.662650000000       4.033017729795
       233    2   4.000000       25.419218304644       5.662650000000       7.103977015794
       234    3  -2.000000       26.421663690434       5.662650000000       2.258444886579
       235    3  -2.000000       23.725473989392       5.662650000000       2.783805789133
       236    3  -2.000000       26.859018384318       5.662650000000       5.357187410221
       237    3  -2.000000       24.215654542809       5.662650000000       5.713892139677
       238    3  -2.000000       27.382882063159       5.662650000000       8.181456136750
       239    3  -2.000000       24.301533286367       5.662650000000       8.535270496566
       240    3  -2.000000       23.142600000000       5.662650000000       0.000000000000
       241    1   1.000000       29.147728693347       5.662650000000       6.926090902874
       242    2   4.000000       19.864198577287       5.662650000000       8.592421165159
       243    2   4.000000       19.694946655727       5.662650000000       5.290153993335
       244    2   4.000000       19.284816847066       5.662650000000       2.219194707336
       245    3  -2.000000       18.282371556146       5.662650000000       7.064726277161
       246    3  -2.000000       20.978561162319       5.662650000000       6.539365933997
       247    3  -2.000000       17.845016862261       5.662650000000       3.965983753519
       248    3  -2.000000       20.488380608901       5.662650000000       3.609279583453
       249    3  -2.000000       17.321153088551       5.662650000000       1.141715586380
       250    3  -2.000000       20.402501865343       5.662650000000       0.787901226564
       251    1   1.000000       38.698906458364       7.550199811245       2.397080820256
       252    2   4.000000       32.554036669293       7.550199811245       0.730749998581
       253    2   4.000000       32.723288495983       7.550199811245       4.033017729795
       254    2   4.000000       33.133418304645       3.775100188755       7.103977015794
       255    3  -2.000000       34.135863690434       7.550199811245       2.258444886579
       256    3  -2.000000       31.439673989391       3.775100188755       2.783805789133
       257    3  -2.000000       34.573218384318       3.775100188755       5.357187410221
       258    3  -2.000000       31.929854542809       3.775100188755       5.713892139677
       259    3  -2.000000       35.097082063159       7.550199811245       8.181456136750
       260    3  -2.000000       32.015733286367       7.550199811245       8.535270496566
       261    3  -2.000000       30.856800000000       3.775100188755       0.000000000000
       262    1   1.000000       36.861928693346       3.775100188755       6.926090902874
       263    2   4.000000       43.006798577287       3.775100188755       8.592421165159
       264    2   4.000000       42.837546655727       3.775100188755       5.290153993335
       265    2   4.000000       42.427416847066       3.775100188755       2.219194707336
       266    3  -2.000000       41.424971556146       3.775100188755       7.064726277161
       267    3  -2.000000       44.121161162319       3.775100188755       6.539365933997
       268    3  -2.000000       40.987616862261       3.775100188755       3.965983753519
       269    3  -2.000000       43.630980608901       3.775100188755       3.609279583453
       270    3  -2.000000       40.463753088551       3.775100188755       1.141715586380
       271    3  -2.000000       43.545101865343       3.775100188755       0.787901226564
       272    1   1.000000       30.984706458364       5.662650000000       2.397080820256
       273    2   4.000000       40.268236669293       5.662650000000       0.730749998581
       274    2   4.000000       40.437488495983       5.662650000000       4.033017729795
       275    2   4.000000       40.847618304644       5.662650000000       7.103977015794
       276    3  -2.000000       41.850063690434       5.662650000000       2.258444886579
       277    3  -2.000000       39.153873989391       5.662650000000       2.783805789133
       278    3  -2.000000       42.287418384318       5.662650000000       5.357187410221
       279    3  -2.000000       39.644054542809       5.662650000000       5.713892139677
       280    3  -2.000000       42.811282063159       5.662650000000       8.181456136750
       281    3  -2.000000       39.729933286367       5.662650000000       8.535270496566
       282    3  -2.000000       38.571000000000       5.662650000000       0.000000000000
       283    1   1.000000       44.576128693346       5.662650000000       6.926090902874
       284    2   4.000000       35.292598577287       5.662650000000       8.592421165159
       285    2   4.000000       35.123346655727       5.662650000000       5.290153993335
       286    2   4.000000       34.713216847066       5.662650000000       2.219194707336
       287    3  -2.000000       33.710771556146       5.662650000000       7.064726277161
       288    3  -2.000000       36.406961162319       5.662650000000       6.539365933997
       289    3  -2.000000       33.273416862261       5.662650000000       3.965983753519
       290    3  -2.000000       35.916780608901       5.662650000000       3.609279583453
       291    3  -2.000000       32.749553088551       5.662650000000       1.141715586380
       292    3  -2.000000       35.830901865343       5.662650000000       0.787901226564
       293    1   1.000000       54.127306458364       7.550199811245       2.397080820256
       294    2   4.000000       47.982436669293       7.550199811245       0.730749998581
       295    2   4.000000       48.151688495983       7.550199811245       4.033017729795
       296    2   4.000000       48.561818304644       3.775100188755       7.103977015794
       297    3  -2.000000       49.564263690434       7.550199811245       2.258444886579
       298    3  -2.000000       46.868073989391       3.775100188755       2.783805789133
       299    3  -2.000000       50.001618384318       3.775100188755       5.357187410221
       300    3  -2.000000       47.358254542809       3.775100188755       5.713892139677
       301    3  -2.000000       50.525482063159       7.550199811245       8.181456136750
       302    3  -2.000000       47.444133286367       7.550199811245       8.535270496566
       303    3  -2.000000       46.285200000000       3.775100188755       0.000000000000
       304    1   1.000000       52.290328693347       3.775100188755       6.926090902874
       305    2   4.000000       58.435198577287       3.775100188755       8.592421165159
       306    2   4.000000       58.265946655727       3.775100188755       5.290153993335
       307    2   4.000000       57.855816847066       3.775100188755       2.219194707336
       308    3  -2.000000       56.853371556146       3.775100188755       7.064726277161
       309    3  -2.000000       59.549561162319       3.775100188755       6.539365933997
       310    3  -2.000000       56.416016862261       3.775100188755       3.965983753519
       311    3  -2.000000       59.059380608901       3.775100188755       3.609279583453
       312    3  -2.000000       55.892153088551       3.775100188755       1.141715586380
       313    3  -2.000000       58.973501865344       3.775100188755       0.787901226564
       314    1   1.000000       46.413106458364       5.662650000000       2.397080820256
       315    2   4.000000       55.696636669293       5.662650000000       0.730749998581
       316    2   4.000000       55.865888495983       5.662650000000       4.033017729795
       317    2   4.000000       56.276018304644       5.662650000000       7.103977015794
       318    3  -2.000000       57.278463690434       5.662650000000       2.258444886579
       319    3  -2.000000       54.582273989391       5.662650000000       2.783805789133
       320    3  -2.000000       57.715818384318       5.662650000000       5.357187410221
       321    3  -2.000000       55.072454542809       5.662650000000       5.713892139677
       322    3  -2.000000       58.239682063159       5.662650000000       8.181456136750